LAMMPS (2 Aug 2023 - Development - patch_2Aug2023-409-gc82e7b16bd)
OMP_NUM_THREADS environment is not set. Defaulting to 1 thread. (src/comm.cpp:98)
  using 1 OpenMP thread(s) per MPI task
log out/simulation.log
